# vtk DataFile Version 3.0
vtk output
ASCII
DATASET STRUCTURED_POINTS
DIMENSIONS 10 10 10
SPACING 0.1 0.1 0.1
ORIGIN 0 0 0
POINT_DATA 1000
SCALARS scalars float
LOOKUP_TABLE default
0  0  0  0  0  0  0  0  0  0  
0  0  0  0  0  0  0  0  0  0  
0  0  0  0  0  0  0  0  0  0  
0  0  0  0  0  0  0  0  0  0  
0  0  0  0  0  0  0  0  0  0  
0  0  0  0  0  0  0  0  0  0  
0  0  0  0  0  0  0  0  0  0  
0  0  0  0  0  0  0  0  0  0  
0  0  0  0  0  0  0  0  0  0  
0  0  0  0  0  0  0  0  0  0  
0  0  0  0  0  0  0  0  0  0  
0  0  0  0  0  0  0  0  0  0  
0  0  0  0  0  0  0  0  0  0  
0  0  0  0  0  0  0  0  0  0  
0  0  0  0  0  0  0  0  0  0  
0  0  0  0  0  0  0  0  0  0  
0  0  0  0  0  0  0  0  0  0  
0  0  0  0  0  0  0  0  0  0  
0  0  0  0  0  0  0  0  0  0  
0  0  0  0  0  0  0  0  0  0  
0  0  0  0  0  0  0  0  0  0  
0  0  0  0  0  0  0  0  0  0  
0  0  0  0  0  0  0  0  0  0  
0  0  0  0  0  0  0  0  0  0  
0  0  0  0  0  0  0  0  0  0  
0  0  0  0  0  0  0  0  0  0  
0  0  0  0  0  0  0  0  0  0  
0  0  0  0  0  0  0  0  0  0  
0  0  0  0  0  0  0  0  0  0  
0  0  0  0  0  0  0  0  0  0  
0  0  0  0  0  0  0  0  0  0  
0  0  0  0  0  0  0  0  0  0  
0  0  0  0  0  0  0  0  0  0  
0  0  0  0  0  0  0  0  0  0  
0  0  0  0  0  0  0  0  0  0  
0  0  0  0  0  0  0  0  0  0  
0  0  0  0  0  0  0  0  0  0  
0  0  0  0  0  0  0  0  0  0  
0  0  0  0  0  0  0  0  0  0  
0  0  0  0  0  0  0  0  0  0  
0  0  0  0  0  0  0  0  0  0  
0  0  0  0  0  0  0  0  0  0  
0  0  0  0  0  0  0  0  0  0  
0  0  0  0  0  0  0  0  0  0  
0  0  0  0  0  0  0  0  0  0  
0  0  0  0  0  0  0  0  0  0  
0  0  0  0  0  0  0  0  0  0  
0  0  0  0  0  0  0  0  0  0  
0  0  0  0  0  0  0  0  0  0  
0  0  0  0  0  0  0  0  0  0  
0.0329916  0.0341693  0.0300294  0.0308059  0.0361163  0.0206551  0.0207587  0.0203545  0.0187315  0.0154888  
0.0197897  0.0249933  0.0234912  0.0296962  0.0367393  0.0195658  0.0198353  0.01962  0.0178476  0.0133777  
0.0173666  0.0166456  0.00474159  0.0231222  0.0301773  0.0183276  0.0188216  0.0191442  0.0183356  0.0156167  
0.0206597  0.0211805  0.026815  0.0311662  0.0336831  0.0170208  0.0176471  0.0185795  0.0190904  0.0187114  
0.0299546  0.0277618  0.030642  0.0350468  0.0375042  0.0158855  0.0164707  0.0178118  0.0192541  0.0202188  
0.0750851  0.0837094  0.121574  0.144838  0.157005  0.0127967  0.0116822  0.0111885  0.0115542  0.0121935  
0.0815186  0.0924173  0.119918  0.138126  0.149049  0.0132959  0.0121933  0.0115754  0.0115816  0.0116792  
0.0878526  0.0977323  0.114643  0.132027  0.145884  0.0143417  0.0134684  0.0126617  0.0116933  0.0103371  
0.0845353  0.088893  0.0990372  0.117689  0.13563  0.0156174  0.0149295  0.0138388  0.0116629  0.00819618  
0.0795901  0.0798402  0.0855739  0.103253  0.122169  0.0169461  0.0163989  0.0152325  0.0128338  0.0094526  
0.0359633  0.0385328  0.0292126  0.0267439  0.0471119  0.0207395  0.0211592  0.0211085  0.0195151  0.0148926  
0.019419  0.0278377  0.026314  0.0353728  0.0455524  0.0192513  0.0199699  0.020303  0.0185532  0.0108882  
0.0198369  0.0183932  0.00914907  0.0241139  0.0339512  0.0173811  0.0184212  0.0195658  0.0192376  0.0152763  
0.0239116  0.0236727  0.0290094  0.0338612  0.0358266  0.0153011  0.0163533  0.0183193  0.0198458  0.0198017  
0.0300362  0.0179486  0.0269168  0.0359068  0.0370791  0.0133629  0.0139141  0.0164599  0.0193713  0.0211908  
0.0412624  0.0291737  0.126739  0.151094  0.153597  0.0117991  0.00948575  0.00840596  0.010055  0.0117379  
0.0667787  0.0779294  0.12737  0.135181  0.127046  0.0124709  0.0102722  0.00913516  0.0104309  0.0113817  
0.0807649  0.093448  0.117564  0.14094  0.154736  0.0140137  0.0128561  0.0120164  0.0113598  0.00957474  
0.0750869  0.0740971  0.0784724  0.114832  0.143039  0.0157178  0.0151829  0.0141843  0.0113879  0.00381449  
0.0681757  0.0573887  0.0462878  0.0892885  0.121656  0.0174394  0.0172045  0.0161504  0.012975  0.00660218  
0.0441456  0.0522657  0.0490525  0.0698732  0.105578  0.0209239  0.0217166  0.0223046  0.0219926  0.0193129  
0.0311224  0.0377679  0.0413146  0.0610243  0.0712703  0.0188656  0.0202082  0.0215441  0.0215623  0.0174079  
0.022932  0.021566  0.0206997  0.0404425  0.0512264  0.0159172  0.0178901  0.0205701  0.0221102  0.0204308  
0.0268225  0.0285441  0.0347752  0.0423042  0.0413149  0.0127703  0.0146166  0.0183841  0.021786  0.0231713  
0.0352748  0.0280673  0.0324192  0.0382187  0.0341717  0.0100816  0.00982225  0.0147116  0.0200634  0.0231468  
0.0663325  0.0845761  0.157508  0.198273  0.195107  0.0112681  0.00705046  0.00384362  0.00873514  0.0117998  
0.0720003  0.0946858  0.154005  0.177068  0.145072  0.0121442  0.00816338  0.00471308  0.00960736  0.0119302  
0.0737381  0.0911009  0.128322  0.171308  0.18443  0.0139853  0.0128144  0.0120166  0.0122055  0.0114537  
0.0649519  0.0654603  0.0714116  0.121292  0.157777  0.0157368  0.0158386  0.0154831  0.0135484  0.00925757  
0.0570801  0.0464162  0.0256232  0.0839642  0.122909  0.0178243  0.0184068  0.0181985  0.0156148  0.0109877  
0.047806  0.0744499  0.107316  0.150251  0.150587  0.0212728  0.0221562  0.0226821  0.0240654  0.0242827  
0.0154146  0.0505276  0.0736934  0.102616  0.0993335  0.0185519  0.0203874  0.0219055  0.0241992  0.0231667  
0.0331964  0.0409899  0.0366134  0.111838  0.0679564  0.0135036  0.0170845  0.0218481  0.0261385  0.0278014  
0.0310659  0.0373034  0.0395559  0.0486955  0.0419356  0.00769114  0.012338  0.0193945  0.0248929  0.0284287  
0.0433144  0.0566949  0.0401855  0.0374909  0.0343289  0.00757696  0.00804971  0.0151521  0.0215275  0.0256926  
0.0499976  0.0555416  0.179278  0.317906  0.348677  0.012116  0.0077078  0.00473945  0.00944309  0.0127723  
0.0595673  0.0824182  0.17212  0.334762  0.181093  0.0132443  0.00968334  0.00637697  0.0107884  0.013309  
0.0584103  0.076286  0.129072  0.218338  0.24374  0.0141336  0.0144816  0.0141171  0.0140599  0.0133857  
0.0504355  0.0545112  0.0682822  0.126707  0.173278  0.0143807  0.0163758  0.0176789  0.0160358  0.0105455  
0.0423142  0.0394688  0.026805  0.0806942  0.120544  0.0170802  0.0191225  0.021295  0.0189847  0.0129821  
0.0604718  0.107474  0.219544  0.265916  0.164808  0.0220453  0.0226605  0.0211523  0.0225132  0.0319492  
0.0340041  0.0678014  0.133774  0.15049  0.117304  0.0191291  0.0209672  0.0186527  0.016577  0.0395716  
0.0295197  0.0369808  0.0483926  0.0822089  0.0707846  0.0124472  0.0175529  0.0233042  0.0307828  0.0462531  
0.0213914  0.0383105  0.0431638  0.0473075  0.0520066  0.00131909  0.0110558  0.0222719  0.0291457  0.0359067  
0.0404382  0.116048  0.0513971  0.0234523  0.0409068  0.00633235  0.009943  0.0186356  0.0206338  0.0279031  
0.0436686  0.0519522  0.155893  0.381042  0.461809  0.0145942  0.0108166  0.0063866  0.0121934  0.0146868  
0.0416496  0.0534268  0.0976951  0.421057  0.471936  0.0161497  0.0159829  0.0106604  0.0115492  0.015405  
0.0322646  0.0409271  0.0963119  0.224203  0.277705  0.0129862  0.0189532  0.0193303  0.0162839  0.0157536  
0.0323841  0.0336648  0.0390459  0.114117  0.17302  0.00629627  0.015119  0.0208734  0.0190396  0.0131359  
0.0154471  0.0278192  0.0259991  0.0709338  0.105268  0.014113  0.0153409  0.0266507  0.0235989  0.0157035  
